# vtk DataFile Version 3.0 
2D Unstructured Grid
ASCII
DATASET UNSTRUCTURED_GRID
POINTS 6649 float 
-1.8e-05 -1.8e-05 0.
-1.8e-05 1.8e-05 0.
1.8e-05 1.8e-05 0.
1.8e-05 -1.8e-05 0.
1.33e-05 1.114e-05 0.
9.55e-06 1.114e-05 0.
-7.47e-06 2.91e-06 0.
-1.165e-05 2.91e-06 0.
-5.6e-06 -1.382e-05 0.
-8.63e-06 -1.382e-05 0.
-1.425e-05 -8.4e-07 0.
-1.743e-05 -8.4e-07 0.
7.24e-06 5.08e-06 0.
3.78e-06 5.08e-06 0.
-8.625e-06 -5.74e-06 0.
-1.2805e-05 -5.74e-06 0.
4.6e-07 -8.19e-06 0.
-3.43e-06 -8.19e-06 0.
-1.27e-06 7.82e-06 0.
-4.73e-06 7.82e-06 0.
6.09e-06 -2.57e-06 0.
2.34e-06 -2.57e-06 0.
1.258e-05 3.2e-07 0.
9.55e-06 3.2e-07 0.
-1.38e-05 -1.215e-05 0.
-1.755e-05 -1.215e-05 0.
1.141e-05 -8.47e-06 0.
7.66e-06 -8.47e-06 0.
-2.7e-06 1.471e-05 0.
-5.78e-06 1.471e-05 0.
5.22e-06 1.361e-05 0.
1.04e-06 1.361e-05 0.
-1.266e-05 8.68e-06 0.
-1.612e-05 8.68e-06 0.
-8.76e-06 1.436e-05 0.
-1.136e-05 1.436e-05 0.
5.94e-06 -1.42e-05 0.
2.62e-06 -1.42e-05 0.
-1.8e-05 -1.75e-05 0.
-1.8e-05 -1.7e-05 0.
-1.8e-05 -1.65e-05 0.
-1.8e-05 -1.6e-05 0.
-1.8e-05 -1.55e-05 0.
-1.8e-05 -1.5e-05 0.
-1.8e-05 -1.45e-05 0.
-1.8e-05 -1.4e-05 0.
-1.8e-05 -1.35e-05 0.
-1.8e-05 -1.3e-05 0.
-1.8e-05 -1.25e-05 0.
-1.8e-05 -1.2e-05 0.
-1.8e-05 -1.15e-05 0.
-1.8e-05 -1.1e-05 0.
-1.8e-05 -1.05e-05 0.
-1.8e-05 -1e-05 0.
-1.8e-05 -9.5e-06 0.
-1.8e-05 -9e-06 0.
-1.8e-05 -8.5e-06 0.
-1.8e-05 -8e-06 0.
-1.8e-05 -7.5e-06 0.
-1.8e-05 -7e-06 0.
-1.8e-05 -6.5e-06 0.
-1.8e-05 -6e-06 0.
-1.8e-05 -5.5e-06 0.
-1.8e-05 -5e-06 0.
-1.8e-05 -4.5e-06 0.
-1.8e-05 -4e-06 0.
-1.8e-05 -3.5e-06 0.
-1.8e-05 -3e-06 0.
-1.8e-05 -2.5e-06 0.
-1.8e-05 -2e-06 0.
-1.8e-05 -1.5e-06 0.
-1.8e-05 -1e-06 0.
-1.8e-05 -5e-07 0.
-1.8e-05 -4.860953e-17 0.
-1.8e-05 5e-07 0.
-1.8e-05 1e-06 0.
-1.8e-05 1.5e-06 0.
-1.8e-05 2e-06 0.
-1.8e-05 2.5e-06 0.
-1.8e-05 3e-06 0.
-1.8e-05 3.5e-06 0.
-1.8e-05 4e-06 0.
-1.8e-05 4.5e-06 0.
-1.8e-05 5e-06 0.
-1.8e-05 5.5e-06 0.
-1.8e-05 6e-06 0.
-1.8e-05 6.5e-06 0.
-1.8e-05 7e-06 0.
-1.8e-05 7.5e-06 0.
-1.8e-05 8e-06 0.
-1.8e-05 8.5e-06 0.
-1.8e-05 9e-06 0.
-1.8e-05 9.5e-06 0.
-1.8e-05 1e-05 0.
-1.8e-05 1.05e-05 0.
-1.8e-05 1.1e-05 0.
-1.8e-05 1.15e-05 0.
-1.8e-05 1.2e-05 0.
-1.8e-05 1.25e-05 0.
-1.8e-05 1.3e-05 0.
-1.8e-05 1.35e-05 0.
-1.8e-05 1.4e-05 0.
-1.8e-05 1.45e-05 0.
-1.8e-05 1.5e-05 0.
-1.8e-05 1.55e-05 0.
-1.8e-05 1.6e-05 0.
-1.8e-05 1.65e-05 0.
-1.8e-05 1.7e-05 0.
-1.8e-05 1.75e-05 0.
-1.75e-05 1.8e-05 0.
-1.7e-05 1.8e-05 0.
-1.65e-05 1.8e-05 0.
-1.6e-05 1.8e-05 0.
-1.55e-05 1.8e-05 0.
-1.5e-05 1.8e-05 0.
-1.45e-05 1.8e-05 0.
-1.4e-05 1.8e-05 0.
-1.35e-05 1.8e-05 0.
-1.3e-05 1.8e-05 0.
-1.25e-05 1.8e-05 0.
-1.2e-05 1.8e-05 0.
-1.15e-05 1.8e-05 0.
-1.1e-05 1.8e-05 0.
-1.05e-05 1.8e-05 0.
-1e-05 1.8e-05 0.
-9.5e-06 1.8e-05 0.
-9e-06 1.8e-05 0.
-8.5e-06 1.8e-05 0.
-8e-06 1.8e-05 0.
-7.5e-06 1.8e-05 0.
-7e-06 1.8e-05 0.
-6.5e-06 1.8e-05 0.
-6e-06 1.8e-05 0.
-5.5e-06 1.8e-05 0.
-5e-06 1.8e-05 0.
-4.5e-06 1.8e-05 0.
-4e-06 1.8e-05 0.
-3.5e-06 1.8e-05 0.
-3e-06 1.8e-05 0.
-2.5e-06 1.8e-05 0.
-2e-06 1.8e-05 0.
-1.5e-06 1.8e-05 0.
-1e-06 1.8e-05 0.
-5e-07 1.8e-05 0.
-4.860953e-17 1.8e-05 0.
5e-07 1.8e-05 0.
1e-06 1.8e-05 0.
1.5e-06 1.8e-05 0.
2e-06 1.8e-05 0.
2.5e-06 1.8e-05 0.
3e-06 1.8e-05 0.
3.5e-06 1.8e-05 0.
4e-06 1.8e-05 0.
4.5e-06 1.8e-05 0.
5e-06 1.8e-05 0.
5.5e-06 1.8e-05 0.
6e-06 1.8e-05 0.
6.5e-06 1.8e-05 0.
7e-06 1.8e-05 0.
7.5e-06 1.8e-05 0.
8e-06 1.8e-05 0.
8.5e-06 1.8e-05 0.
9e-06 1.8e-05 0.
9.5e-06 1.8e-05 0.
1e-05 1.8e-05 0.
1.05e-05 1.8e-05 0.
1.1e-05 1.8e-05 0.
1.15e-05 1.8e-05 0.
1.2e-05 1.8e-05 0.
1.25e-05 1.8e-05 0.
1.3e-05 1.8e-05 0.
1.35e-05 1.8e-05 0.
1.4e-05 1.8e-05 0.
1.45e-05 1.8e-05 0.
1.5e-05 1.8e-05 0.
1.55e-05 1.8e-05 0.
1.6e-05 1.8e-05 0.
1.65e-05 1.8e-05 0.
1.7e-05 1.8e-05 0.
1.75e-05 1.8e-05 0.
1.8e-05 1.75e-05 0.
1.8e-05 1.7e-05 0.
1.8e-05 1.65e-05 0.
1.8e-05 1.6e-05 0.
1.8e-05 1.55e-05 0.
1.8e-05 1.5e-05 0.
1.8e-05 1.45e-05 0.
1.8e-05 1.4e-05 0.
1.8e-05 1.35e-05 0.
1.8e-05 1.3e-05 0.
1.8e-05 1.25e-05 0.
1.8e-05 1.2e-05 0.
1.8e-05 1.15e-05 0.
1.8e-05 1.1e-05 0.
1.8e-05 1.05e-05 0.
1.8e-05 1e-05 0.
1.8e-05 9.5e-06 0.
1.8e-05 9e-06 0.
1.8e-05 8.5e-06 0.
1.8e-05 8e-06 0.
1.8e-05 7.5e-06 0.
1.8e-05 7e-06 0.
1.8e-05 6.5e-06 0.
1.8e-05 6e-06 0.
1.8e-05 5.5e-06 0.
1.8e-05 5e-06 0.
1.8e-05 4.5e-06 0.
1.8e-05 4e-06 0.
1.8e-05 3.5e-06 0.
1.8e-05 3e-06 0.
1.8e-05 2.5e-06 0.
1.8e-05 2e-06 0.
1.8e-05 1.5e-06 0.
1.8e-05 1e-06 0.
1.8e-05 5e-07 0.
1.8e-05 4.860953e-17 0.
1.8e-05 -5e-07 0.
1.8e-05 -1e-06 0.
1.8e-05 -1.5e-06 0.
1.8e-05 -2e-06 0.
1.8e-05 -2.5e-06 0.
1.8e-05 -3e-06 0.
1.8e-05 -3.5e-06 0.
1.8e-05 -4e-06 0.
1.8e-05 -4.5e-06 0.
1.8e-05 -5e-06 0.
1.8e-05 -5.5e-06 0.
1.8e-05 -6e-06 0.
1.8e-05 -6.5e-06 0.
1.8e-05 -7e-06 0.
1.8e-05 -7.5e-06 0.
1.8e-05 -8e-06 0.
1.8e-05 -8.5e-06 0.
1.8e-05 -9e-06 0.
1.8e-05 -9.5e-06 0.
1.8e-05 -1e-05 0.
1.8e-05 -1.05e-05 0.
1.8e-05 -1.1e-05 0.
1.8e-05 -1.15e-05 0.
1.8e-05 -1.2e-05 0.
1.8e-05 -1.25e-05 0.
1.8e-05 -1.3e-05 0.
1.8e-05 -1.35e-05 0.
1.8e-05 -1.4e-05 0.
1.8e-05 -1.45e-05 0.
1.8e-05 -1.5e-05 0.
1.8e-05 -1.55e-05 0.
1.8e-05 -1.6e-05 0.
1.8e-05 -1.65e-05 0.
1.8e-05 -1.7e-05 0.
1.8e-05 -1.75e-05 0.
1.75e-05 -1.8e-05 0.
1.7e-05 -1.8e-05 0.
1.65e-05 -1.8e-05 0.
1.6e-05 -1.8e-05 0.
1.55e-05 -1.8e-05 0.
1.5e-05 -1.8e-05 0.
1.45e-05 -1.8e-05 0.
1.4e-05 -1.8e-05 0.
1.35e-05 -1.8e-05 0.
1.3e-05 -1.8e-05 0.
1.25e-05 -1.8e-05 0.
1.2e-05 -1.8e-05 0.
1.15e-05 -1.8e-05 0.
1.1e-05 -1.8e-05 0.
1.05e-05 -1.8e-05 0.
1e-05 -1.8e-05 0.
9.5e-06 -1.8e-05 0.
9e-06 -1.8e-05 0.
8.5e-06 -1.8e-05 0.
8e-06 -1.8e-05 0.
7.5e-06 -1.8e-05 0.
7e-06 -1.8e-05 0.
6.5e-06 -1.8e-05 0.
6e-06 -1.8e-05 0.
5.5e-06 -1.8e-05 0.
5e-06 -1.8e-05 0.
4.5e-06 -1.8e-05 0.
4e-06 -1.8e-05 0.
3.5e-06 -1.8e-05 0.
3e-06 -1.8e-05 0.
2.5e-06 -1.8e-05 0.
2e-06 -1.8e-05 0.
1.5e-06 -1.8e-05 0.
1e-06 -1.8e-05 0.
5e-07 -1.8e-05 0.
4.860953e-17 -1.8e-05 0.
-5e-07 -1.8e-05 0.
-1e-06 -1.8e-05 0.
-1.5e-06 -1.8e-05 0.
-2e-06 -1.8e-05 0.
-2.5e-06 -1.8e-05 0.
-3e-06 -1.8e-05 0.
-3.5e-06 -1.8e-05 0.
-4e-06 -1.8e-05 0.
-4.5e-06 -1.8e-05 0.
-5e-06 -1.8e-05 0.
-5.5e-06 -1.8e-05 0.
-6e-06 -1.8e-05 0.
-6.5e-06 -1.8e-05 0.
-7e-06 -1.8e-05 0.
-7.5e-06 -1.8e-05 0.
-8e-06 -1.8e-05 0.
-8.5e-06 -1.8e-05 0.
-9e-06 -1.8e-05 0.
-9.5e-06 -1.8e-05 0.
-1e-05 -1.8e-05 0.
-1.05e-05 -1.8e-05 0.
-1.1e-05 -1.8e-05 0.
-1.15e-05 -1.8e-05 0.
-1.2e-05 -1.8e-05 0.
-1.25e-05 -1.8e-05 0.
-1.3e-05 -1.8e-05 0.
-1.35e-05 -1.8e-05 0.
-1.4e-05 -1.8e-05 0.
-1.45e-05 -1.8e-05 0.
-1.5e-05 -1.8e-05 0.
-1.55e-05 -1.8e-05 0.
-1.6e-05 -1.8e-05 0.
-1.65e-05 -1.8e-05 0.
-1.7e-05 -1.8e-05 0.
-1.75e-05 -1.8e-05 0.
9.582082e-06 1.065053e-05 0.
9.677778e-06 1.016943e-05 0.
9.835452e-06 9.704937e-06 0.
1.00524e-05 9.265e-06 0.
1.032492e-05 8.857145e-06 0.
1.064835e-05 8.48835e-06 0.
1.101714e-05 8.164925e-06 0.
1.1425e-05 7.892405e-06 0.
1.186494e-05 7.675452e-06 0.
1.232943e-05 7.517778e-06 0.
1.281053e-05 7.422082e-06 0.
1.33e-05 7.39e-06 0.
1.378947e-05 7.422082e-06 0.
1.427057e-05 7.517778e-06 0.
1.473506e-05 7.675452e-06 0.
1.5175e-05 7.892405e-06 0.
1.558286e-05 8.164925e-06 0.
1.595165e-05 8.48835e-06 0.
1.627508e-05 8.857145e-06 0.
1.65476e-05 9.265e-06 0.
1.676455e-05 9.704937e-06 0.
1.692222e-05 1.016943e-05 0.
1.701792e-05 1.065053e-05 0.
1.705e-05 1.114e-05 0.
1.701792e-05 1.162947e-05 0.
1.692222e-05 1.211057e-05 0.
1.676455e-05 1.257506e-05 0.
1.65476e-05 1.3015e-05 0.
1.627508e-05 1.342286e-05 0.
1.595165e-05 1.379165e-05 0.
1.558286e-05 1.411508e-05 0.
1.5175e-05 1.43876e-05 0.
1.473506e-05 1.460455e-05 0.
1.427057e-05 1.476222e-05 0.
1.378947e-05 1.485792e-05 0.
1.33e-05 1.489e-05 0.
1.281053e-05 1.485792e-05 0.
1.232943e-05 1.476222e-05 0.
1.186494e-05 1.460455e-05 0.
1.1425e-05 1.43876e-05 0.
1.101714e-05 1.411508e-05 0.
1.064835e-05 1.379165e-05 0.
1.032492e-05 1.342286e-05 0.
1.00524e-05 1.3015e-05 0.
9.835452e-06 1.257506e-05 0.
9.677778e-06 1.211057e-05 0.
9.582082e-06 1.162947e-05 0.
-1.162066e-05 2.415618e-06 0.
-1.153306e-05 1.928176e-06 0.
-1.138841e-05 1.454517e-06 0.
-1.118877e-05 1.00129e-06 0.
-1.093692e-05 5.748565e-07 0.
-1.06364e-05 1.812035e-07 0.
-1.029143e-05 -1.741431e-07 0.
-9.906854e-06 -4.861952e-07 0.
-9.488071e-06 -7.505721e-07 0.
-9.040959e-06 -9.635626e-07 0.
-8.571794e-06 -1.122177e-06 0.
-8.087163e-06 -1.224188e-06 0.
-7.593867e-06 -1.268164e-06 0.
-7.098833e-06 -1.253488e-06 0.
-6.609009e-06 -1.180366e-06 0.
-6.131272e-06 -1.049824e-06 0.
-5.672327e-06 -8.636949e-07 0.
-5.238618e-06 -6.245913e-07 0.
-4.836233e-06 -3.358697e-07 0.
-4.47082e-06 -1.583281e-09 0.
-4.147508e-06 3.735754e-07 0.
-3.870838e-06 7.8434e-07 0.
-3.644691e-06 1.224944e-06 0.
-3.472244e-06 1.689203e-06 0.
-3.355916e-06 2.170599e-06 0.
-3.297341e-06 2.662374e-06 0.
-3.297341e-06 3.157626e-06 0.
-3.355916e-06 3.649401e-06 0.
-3.472244e-06 4.130797e-06 0.
-3.644691e-06 4.595056e-06 0.
-3.870838e-06 5.03566e-06 0.
-4.147508e-06 5.446425e-06 0.
-4.47082e-06 5.821583e-06 0.
-4.836233e-06 6.15587e-06 0.
-5.238618e-06 6.444591e-06 0.
-5.672327e-06 6.683695e-06 0.
-6.131272e-06 6.869824e-06 0.
-6.609009e-06 7.000366e-06 0.
-7.098833e-06 7.073488e-06 0.
-7.593867e-06 7.088164e-06 0.
-8.087163e-06 7.044188e-06 0.
-8.571794e-06 6.942177e-06 0.
-9.040959e-06 6.783563e-06 0.
-9.488071e-06 6.570572e-06 0.
-9.906854e-06 6.306195e-06 0.
-1.029143e-05 5.994143e-06 0.
-1.06364e-05 5.638796e-06 0.
-1.093692e-05 5.245143e-06 0.
-1.118877e-05 4.81871e-06 0.
-1.138841e-05 4.365483e-06 0.
-1.153306e-05 3.891824e-06 0.
-1.162066e-05 3.404382e-06 0.
-8.590762e-06 -1.430605e-05 0.
-8.474065e-06 -1.47795e-05 0.
-8.282932e-06 -1.522811e-05 0.
-8.022312e-06 -1.564025e-05 0.
-7.698955e-06 -1.600524e-05 0.
-7.321236e-06 -1.631364e-05 0.
-6.898938e-06 -1.655745e-05 0.
-6.442999e-06 -1.673037e-05 0.
-5.965226e-06 -1.682791e-05 0.
-5.477994e-06 -1.684754e-05 0.
-4.993922e-06 -1.678877e-05 0.
-4.525547e-06 -1.66531e-05 0.
-4.085e-06 -1.644406e-05 0.
-3.68369e-06 -1.616705e-05 0.
-3.332012e-06 -1.582926e-05 0.
-3.039074e-06 -1.543943e-05 0.
-2.812462e-06 -1.500766e-05 0.
-2.658046e-06 -1.454513e-05 0.
-2.579825e-06 -1.406381e-05 0.
[...]
POINT_DATA 6649
SCALARS sol float 1
LOOKUP_TABLE default
3e+08
3e+08
3e+08
3e+08
1e-10
1e-10
1e-10
1e-10
1e-10
1e-10
1e-10
1e-10
1e-10
1e-10
1e-10
1e-10
1e-10
1e-10
1e-10
1e-10
1e-10
1e-10
1e-10
1e-10
1e-10
1e-10
1e-10
1e-10
1e-10
1e-10
1e-10
1e-10
1e-10
1e-10
1e-10
1e-10
1e-10
1e-10
1.327348e+08
4.573793e+07
1.980823e+07
7129356
2410390
732381.1
209701.5
86556.61
35316.74
1e-10
195.9983
1e-10
0.9240142
1e-10
1e-10
1e-10
1e-10
1e-10
1e-10
1e-10
1e-10
1e-10
1e-10
1e-10
1e-10
1e-10
1e-10
1e-10
1e-10
1e-10
1e-10
1e-10
1e-10
1e-10
3.062394e-09
9.046883e-09
2.184363e-08
5.681164e-08
1.780336e-07
4.220485e-07
1.171098e-06
3.717367e-06
9.704779e-06
2.857704e-05
8.20028e-05
0.000249552
0.0007104914
0.002376625
0.007202089
0.01962799
0.0575039
0.1596005
0.4651874
1.36212
4.396722
12.12462
35.36413
94.94247
286.1352
814.5776
2444.527
7332.518
18718.13
55000.61
169750.2
481036.7
1411863
4210752
1.073495e+07
3.220312e+07
1.000948e+08
3e+08
3e+08
3e+08
3e+08
3e+08
3e+08
3e+08
3e+08
3e+08
3e+08
3e+08
3e+08
3e+08
3e+08
3e+08
3e+08
3e+08
3e+08
3e+08
3e+08
3e+08
3e+08
3e+08
3e+08
3e+08
3e+08
3e+08
3e+08
3e+08
3e+08
3e+08
3e+08
3e+08
3e+08
3e+08
3e+08
3e+08
3e+08
3e+08
3e+08
3e+08
3e+08
3e+08
3e+08
3e+08
3e+08
3e+08
3e+08
3e+08
3e+08
3e+08
3e+08
3e+08
3e+08
3e+08
3e+08
3e+08
3e+08
3e+08
3e+08
3e+08
3e+08
3e+08
3e+08
3e+08
3e+08
3e+08
3e+08
3e+08
3e+08
3e+08
1.330036e+08
5.809283e+07
2.083176e+07
8579600
2543390
1021937
322691.4
130132.2
42150.97
17451.12
6727.032
1807.822
1027.26
393.7695
96.09661
46.22668
22.36741
8.051876
2.561148
1.052989
0.3445576
0.1354306
0.03264694
0.01286719
0.005064266
0.001121292
0.0004511925
0.0001769618
5.408595e-05
1.413932e-05
5.042848e-06
1.571025e-06
5.712537e-07
1.446637e-07
7.102907e-08
4.18262e-08
4.73987e-08
9.853605e-08
3.070037e-07
9.98493e-07
3.296161e-06
9.65337e-06
2.960251e-05
9.437698e-05
0.0002790989
0.0008177564
0.002187538
0.006047365
0.01737333
0.04565336
0.1287312
0.321013
0.9076671
2.237296
5.582416
16.07458
41.99379
123.5123
347.2237
1031.689
2830.405
6225.884
23025.14
69296.66
203491.9
592796.2
1770170
5243575
1.464515e+07
4.25377e+07
1.136583e+08
3e+08
3e+08
3e+08
3e+08
3e+08
3e+08
3e+08
3e+08
3e+08
3e+08
3e+08
3e+08
3e+08
3e+08
3e+08
3e+08
3e+08
3e+08
3e+08
3e+08
3e+08
3e+08
3e+08
3e+08
3e+08
3e+08
3e+08
3e+08
3e+08
3e+08
3e+08
3e+08
3e+08
3e+08
3e+08
3e+08
3e+08
3e+08
3e+08
3e+08
3e+08
3e+08
3e+08
3e+08
3e+08
3e+08
3e+08
3e+08
3e+08
3e+08
3e+08
3e+08
3e+08
3e+08
3e+08
3e+08
3e+08
3e+08
3e+08
3e+08
3e+08
3e+08
3e+08
3e+08
3e+08
3e+08
3e+08
3e+08
3e+08
3e+08
3e+08
1e-10
1e-10
1e-10
1e-10
1e-10
1e-10
1e-10
1e-10
1e-10
1e-10
1e-10
1e-10
1e-10
1e-10
1e-10
1e-10
1e-10
1e-10
1e-10
1e-10
1e-10
1e-10
1e-10
1e-10
1e-10
1e-10
1e-10
1e-10
1e-10
1e-10
1e-10
1e-10
1e-10
1e-10
1e-10
1e-10
1e-10
1e-10
1e-10
1e-10
1e-10
1e-10
1e-10
1e-10
1e-10
1e-10
1e-10
1e-10
1e-10
1e-10
1e-10
1e-10
1e-10
1e-10
1e-10
1e-10
1e-10
1e-10
1e-10
1e-10
1e-10
1e-10
1e-10
1e-10
1e-10
1e-10
1e-10
1e-10
1e-10
1e-10
1e-10
1e-10
1e-10
1e-10
1e-10
1e-10
1e-10
1e-10
1e-10
1e-10
1e-10
1e-10
1e-10
1e-10
1e-10
1e-10
1e-10
1e-10
1e-10
1e-10
1e-10
1e-10
1e-10
1e-10
1e-10
1e-10
1e-10
1e-10
1e-10
1e-10
1e-10
1e-10
1e-10
1e-10
1e-10
1e-10
1e-10
1e-10
1e-10
1e-10
1e-10
1e-10
1e-10
1e-10
1e-10
1e-10
1e-10
1e-10
1e-10
1e-10
1e-10
1e-10
1e-10
1e-10
1e-10
1e-10
1e-10
1e-10
1e-10
1e-10
1e-10
1e-10
1e-10
1e-10
1e-10
1e-10
1e-10
1e-10
1e-10
1e-10
1e-10
1e-10
1e-10
1e-10
1e-10
1e-10
1e-10
1e-10
1e-10
1e-10
1e-10
1e-10
1e-10
1e-10
1e-10
1e-10
1e-10
1e-10
1e-10
1e-10
1e-10
1e-10
1e-10
1e-10
1e-10
1e-10
1e-10
1e-10
1e-10
1e-10
1e-10
1e-10
1e-10
1e-10
1e-10
1e-10
1e-10
1e-10
1e-10
1e-10
1e-10
1e-10
1e-10
1e-10
1e-10
1e-10
1e-10
1e-10
1e-10
1e-10
1e-10
1e-10
1e-10
1e-10
1e-10
1e-10
1e-10
1e-10
1e-10
1e-10
1e-10
1e-10
1e-10
1e-10
1e-10
1e-10
1e-10
1e-10
1e-10
1e-10
1e-10
1e-10
1e-10
1e-10
1e-10
1e-10
1e-10
1e-10
1e-10
1e-10
1e-10
1e-10
1e-10
1e-10
1e-10
1e-10
1e-10
1e-10
1e-10
1e-10
1e-10
1e-10
1e-10
1e-10
1e-10
1e-10
1e-10
1e-10
1e-10
1e-10
1e-10
1e-10
1e-10
1e-10
1e-10
1e-10
1e-10
1e-10
1e-10
1e-10
1e-10
1e-10
1e-10
1e-10
1e-10
1e-10
1e-10
1e-10
1e-10
1e-10
1e-10
1e-10
1e-10
1e-10
1e-10
1e-10
1e-10
1e-10
1e-10
1e-10
1e-10
1e-10
1e-10
1e-10
1e-10
1e-10
1e-10
1e-10
1e-10
1e-10
1e-10
1e-10
1e-10
1e-10
1e-10
1e-10
1e-10
1e-10
1e-10
1e-10
1e-10
1e-10
1e-10
1e-10
1e-10
1e-10
1e-10
1e-10
1e-10
1e-10
1e-10
1e-10
1e-10
1e-10
1e-10
1e-10
1e-10
1e-10
1e-10
1e-10
1e-10
1e-10
1e-10
1e-10
1e-10
1e-10
1e-10
1e-10
1e-10
1e-10
1e-10
1e-10
1e-10
1e-10
1e-10
1e-10
1e-10
1e-10
1e-10
1e-10
1e-10
1e-10
1e-10
1e-10
1e-10
1e-10
1e-10
1e-10
1e-10
1e-10
1e-10
1e-10
1e-10
1e-10
1e-10
1e-10
1e-10
1e-10
1e-10
1e-10
1e-10
1e-10
1e-10
1e-10
1e-10
1e-10
1e-10
1e-10
1e-10
1e-10
1e-10
1e-10
1e-10
1e-10
1e-10
1e-10
1e-10
1e-10
1e-10
1e-10
1e-10
1e-10
1e-10
1e-10
1e-10
1e-10
1e-10
1e-10
1e-10
1e-10
1e-10
1e-10
1e-10
1e-10
1e-10
1e-10
1e-10
1e-10
1e-10
1e-10
1e-10
1e-10
1e-10
1e-10
1e-10
1e-10
1e-10
1e-10
1e-10
1e-10
1e-10
1e-10
1e-10
1e-10
1e-10
1e-10
1e-10
1e-10
1e-10
1e-10
1e-10
1e-10
1e-10
1e-10
1e-10
1e-10
1e-10
1e-10
1e-10
1e-10
1e-10
1e-10
1e-10
1e-10
1e-10
1e-10
1e-10
1e-10
1e-10
1e-10
1e-10
1e-10
1e-10
1e-10
1e-10
1e-10
1e-10
1e-10
1e-10
1e-10
1e-10
1e-10
1e-10
1e-10
1e-10
1e-10
1e-10
1e-10
1e-10
1e-10
1e-10
1e-10
1e-10
1e-10
1e-10
1e-10
1e-10
1e-10
1e-10
1e-10
1e-10
1e-10
1e-10
1e-10
1e-10
1e-10
1e-10
1e-10
1e-10
1e-10
1e-10
1e-10
1e-10
1e-10
1e-10
1e-10
1e-10
1e-10
1e-10
1e-10
1e-10
1e-10
1e-10
1e-10
1e-10
1e-10
1e-10
1e-10
1e-10
1e-10
1e-10
1e-10
1e-10
1e-10
1e-10
1e-10
1e-10
1e-10
1e-10
1e-10
1e-10
1e-10
1e-10
1e-10
1e-10
1e-10
1e-10
1e-10
1e-10
1e-10
1e-10
1e-10
1e-10
1e-10
1e-10
1e-10
1e-10
1e-10
1e-10
1e-10
1e-10
1e-10
1e-10
1e-10
1e-10
1e-10
1e-10
1e-10
1e-10
1e-10
1e-10
1e-10
1e-10
1e-10
1e-10
1e-10
1e-10
1e-10
1e-10
1e-10
1e-10
1e-10
1e-10
1e-10
1e-10
1e-10
1e-10
1e-10
1e-10
1e-10
1e-10
1e-10
1e-10
1e-10
1e-10
1e-10
1e-10
1e-10
1e-10
1e-10
1e-10
1e-10
1e-10
1e-10
1e-10
1e-10
1e-10
1e-10
1e-10
1e-10
1e-10
1e-10
1e-10
1e-10
1e-10
1e-10
1e-10
1e-10
1e-10
1e-10
1e-10
1e-10
1e-10
1e-10
1e-10
1e-10
1e-10
1e-10
1e-10
1e-10
1e-10
1e-10
1e-10
1e-10
1e-10
1e-10
1e-10
1e-10
1e-10
1e-10
1e-10
1e-10
1e-10
1e-10
1e-10
1e-10
1e-10
1e-10
1e-10
1e-10
1e-10
1e-10
1e-10
1e-10
1e-10
1e-10
1e-10
1e-10
1e-10
1e-10
1e-10
1e-10
1e-10
1e-10
1e-10
1e-10
1e-10
1e-10
1e-10
1e-10
1e-10
1e-10
1e-10
1e-10
1e-10
1e-10
1e-10
1e-10
1e-10
1e-10
1e-10
1e-10
1e-10
1e-10
1e-10
1e-10
1e-10
1e-10
1e-10
1e-10
1e-10
1e-10
1e-10
1e-10
1e-10
1e-10
1e-10
1e-10
1e-10
1e-10
1e-10
1e-10
1e-10
1e-10
1e-10
1e-10
1e-10
1e-10
1e-10
1e-10
1e-10
1e-10
1e-10
1e-10
1e-10
1e-10
1e-10
1e-10
1e-10
1e-10
1e-10
1e-10
1e-10
1e-10
1e-10
1e-10
1e-10
1e-10
1e-10
1e-10
1e-10
1e-10
1e-10
1e-10
1e-10
1e-10
1e-10
1e-10
1e-10
1e-10
1e-10
1e-10
1e-10
1e-10
1e-10
1e-10
1e-10
1e-10
1e-10
1e-10
1e-10
1e-10
1e-10
1e-10
1e-10
1e-10
1e-10
1e-10
1e-10
1e-10
1e-10
1e-10
1e-10
1e-10
1e-10
1e-10
1e-10
1e-10
1e-10
1e-10
1e-10
1e-10
1e-10
1e-10
1e-10
1e-10
1e-10
1e-10
1e-10
1e-10
1e-10
1e-10
1e-10
1e-10
1e-10
1e-10
1e-10
1e-10
1e-10
13.45953
1e-10
1e-10
1.272985e+08
1.27169e+08
22.28339
8.71455e+07
330672.6
243431.1
4516.213
1e-10
1e-10
20.87674
1e-10
17229.47
1.159379e+08
15734.95
20080.59
1e-10
22587.37
1e-10
1e-10
1e-10
2.897376e-08
1e-10
1e-10
1e-10
2.367298e-05
0.0003557056
1e-10
1.119634
1e-10
1e-10
1e-10
50.9947
1e-10
5522.833
1.121269e-07
3.416921e-05
1e-10
0.0001082642
1.131786e+08
1e-10
1.166853e+08
27922.22
444.135
2.67888e-08
1.313637e+08
6140.098
1e-10
1e-10
1e-10
8.696119
7.858736e-06
1e-10
490514.5
8.590344e+07
1.202656e+08
6853493
2912526
1.512506e-07
4.370452e-06
0.002900297
1.578766e-05
1e-10
6.250779e-07
1e-10
1e-10
46006.96
64153.4
31663.59
1.164901e+08
52386.66
18.55381
15.49809
1.777604e-06
398482.9
0.0009774256
177760.1
1e-10
1e-10
3.944271e-09
72.90095
1e-10
104695.1
1e-10
1.250303e+08
402.2289
2.888287e-06
5.224896e-09
405066
1.098756e+08
1e-10
0.02404098
0.0001082957
1e-10
195490.2
9.036618e-09
428027.3
3.519533e-07
1e-10
1e-10
7.227183e-10
0.1245531
1e-10
75.20836
75455.22
2.736071e-09
1e-10
121.783
5.018538e-08
0.3363275
8.218849e+07
8.973013e+07
1e-10
1.220357e-07
2.978927e-08
1.830284e-08
3.799966e-10
7.585839e+07
6.528493e+07
1.181058e+08
8.988936e+07
0.0214336
0.0002168971
8.170874e+07
1.544402e-05
728.9071
1.081016e+08
2.192458
3.237304e-08
8.269829e+07
9.587701e+07
0.0005878719
1e-10
0.07019546
1e-10
1.921145e-08
1.148719e+08
1e-10
1.906245
1.20156e+08
1e-10
3.039364e-06
1e-10
1.090002e+08
7.201152e+07
1e-10
1.858487e-07
1.18105e-10
1e-10
0.009371744
1e-10
124159.3
0.008045955
1e-10
1e-10
1e-10
1.382675e-10
7.176999e-08
39.30846
1e-10
263074.4
1.483159e-09
1.009372e+08
11775.63
1e-10
5.766079e-08
0.005164082
0.003482818
4.887783
1e-10
1e-10
1e-10
1.159498e-10
1e-10
6712295
1.000509
1019.211
1.086377e+08
6885245
1410087
68.81977
42584.24
7143347
977852.4
204888
6.676461e+07
1e-10
0.01934177
5.282064
1e-10
0.000230349
1.211772e+08
225.6244
0.0004599983
7.081516e-10
9.228044e+07
8.982714e-10
0.001571083
6.243323e-07
1e-10
4963517
8.030069e-07
1e-10
1e-10
1.997803e-08
5.826108e-05
0.587361
1e-10
3.76303e-07
0.874137
181459.5
1e-10
1.491479e-09
1e-10
911.56
7.153455
1.221651e-10
1.05378e+08
5.844561e-05
1e-10
439.576
0.0005744195
1e-10
2291648
9.942083e+07
9.359819e+07
4.35798e-05
1e-10
108643.3
7.772328
1e-10
1e-10
1e-10
1309141
437.7338
0.09306872
4.673773e-08
1.022662e+08
0.008035339
26.43235
0.018547
1e-10
1e-10
1e-10
0.07361498
2.2555e-08
1e-10
1e-10
1e-10
3.496168e+07
7.378831e-07
4.907046e+07
3.815778e+07
1.153007e+08
1.116762e+08
0.02352176
2.215162e+07
0.008086408
28.40139
1.665566e-08
1e-10
1e-10
1e-10
1e-10
7.233623
3.312993e-10
1.188664e+07
7370.966
8.97648e+07
2.689103e+07
75.39934
1.500428e-07
1e-10
1e-10
8.814612e+07
2.146635e-08
37.03095
0.0007466533
1.883639e+07
1e-10
0.4377962
1.056028e+07
6.648945e+07
0.0004839424
5.817745e-06
1e-10
2.627058e+07
1e-10
1.379117e+07
8.741084e+07
1e-10
1e-10
1e-10
1e-10
1.016019e+08
1e-10
1e-10
7.17358e-09
1e-10
1e-10
2.536004e+07
2.102049e-06
1e-10
9162.991
1.226065e-09
1e-10
28114.25
1e-10
1e-10
16.21787
8.770257e+07
1.469038e-07
1e-10
1e-10
1e-10
1.481668e-05
1e-10
6.312777e-06
1e-10
4.003455e-06
1.50082e-05
4.38195e-06
1.010245e-05
1e-10
1e-10
7.098415e-06
2.60969e-05
0.0001378776
4.914227e-07
1.741843e-06
1e-10
1e-10
1e-10
7.892597e-05
3.65857e-09
5.016647e-07
2.944336e-05
7.627426e-06
1.378944e-07
1e-10
8.767937e-06
1.361732e-06
2.612533e-07
1e-10
3.407004e-08
5.931528e-09
5.040085e-05
0.0002897582
0.001894072
0.0230962
4505.538
6625.887
29301.6
7889.075
24835.9
26252.61
135675.9
24072.52
102069.6
53060.64
16035.76
8623.649
10519.59
18889.93
96553.34
6608.552
1966.298
2026.343
4406.027
1983.679
18604.32
288884.3
3428.508
584506.5
1385.896
1423.128
376.8582
3177.031
3126.415
1613.179
329.6436
591.8434
13890.66
93.86791
177.2214
140.7889
45.53467
84642.96
4216.498
24.91325
73.45048
25952.1
47420.24
483.5792
305.9376
182.2965
1.102483e+07
4.066342e+07
4720832
757660
517588.9
2895586
414146.6
1477768
4881817
6880551
3752538
6199641
1e-10
1e-10
1e-10
1e-10
7671063
0.1739498
1e-10
1e-10
2.208128e-09
7.642768e-09
0.006175379
3.163056e+07
2337338
6699830
1724035
4244253
1e-10
1e-10
1e-10
1e-10
1e-10
1e-10
1e-10
1e-10
1e-10
1e-10
1e-10
1e-10
1e-10
1e-10
1e-10
1e-10
1e-10
1e-10
1e-10
1e-10
1e-10
1e-10
1e-10
1e-10
1e-10
1e-10
1e-10
1e-10
1e-10
1e-10
1e-10
1e-10
1e-10
1e-10
1e-10
1e-10
1e-10
1e-10
1e-10
1.702306e-07
1e-10
1e-10
1.31876e-08
1e-10
1e-10
1e-10
7.966205e-09
9.415527e-10
1.048471e-09
1e-10
1e-10
1e-10
9.787095e-08
1e-10
2.00859e-06
8.347555e-06
1e-10
1e-10
4.079302e-06
1e-10
1e-10
1e-10
1.863239e-06
1e-10
0.0001464595
1e-10
2.351337e-08
6.318074e-08
7.537921e-08
1.038767e-07
1.890205e-07
7.737027e-07
3.535662e-07
2.752915e-06
2.173236e-06
6.583782e-06
1.660429e-07
1e-10
7.786796e-07
3.677839e-06
1.44524e-05
2.021519e-05
3.286505e-05
5.065088e-05
0.000182913
0.0001182373
0.0003348771
6.606745e-05
2.710296e-06
1.083828e-06
2.178387e-07
4.281828e-07
7.63966e-08
1.255104e-07
0.0005735874
0.000902349
1.593209e-06
4.830241e-06
4.149517e-06
2.600182e-06
2.074221e-08
4.415817e-08
0.001172104
0.002749413
8.399788e-06
9.176723e-08
6.038543e-08
6.065636e-06
8.887946e-05
0.0002385466
0.001366391
0.003192512
0.006008201
0.008915032
0.02172615
0.01799381
0.05896446
0.05808681
0.1263248
0.2009568
0.2729685
0.5607842
1.470098
1.345488
2.05918
4.289932
11.06105
9.241918
21.61798
21.54283
36.33307
57.71853
154.9823
145.4884
87.02603
172.5044
358.9256
476.6371
97.92622
1672.734
827.3905
1823.113
2518.382
5271.254
2683.382
5635.91
4696.073
19544.1
10545.12
26988.31
21751.79
11907.77
30568.92
28780.13
121822.3
80961.42
77670.55
178939.1
68700.32
15772.24
46491.83
153433.3
4853.706
7780.035
373766.1
809.3146
16351.45
2728.415
456607.6
1764.841
9652.98
30996.03
1129.993
729028.4
42.08715
1895919
15.87363
1928550
5819523
2537692
1025783
7016451
856471.7
1250.426
775.0479
7.241708
22299.61
63673.5
89309.59
192579.6
365991.2
506473.3
1414430
1567724
818105.1
17.53023
37.68446
3152880
29.31702
0.007422745
9883267
0.1535765
4059707
2526556
947736.4
927818.4
1136455
2750428
1.22097e+07
4018852
1338218
719873.6
691745
1252819
552559.6
7646316
153468
210493.1
2.519983e+07
161977
38931.93
72465.49
0.0006466163
20.79575
78.92846
46.84115
125.4368
3155784
7384280
1.650236e+07
3.583566
1011237
7421302
3968455
2.520514e+07
1.181304e-08
3.281926e-08
5.541821e-09
6.389367e-09
4.000851e-09
1.387346e-07
4.804724e-08
1.966923e-09
2.710327e-09
50142.49
206432.6
454003.5
174048.9
43599.1
357341.4
162612.5
121704.2
618301.5
1699757
3590379
31952.27
8628323
8846784
1455442
1577570
1.331294e+07
1744787
2825305
1.192883e+07
1137991
3235731
9.979339e+07
1e-10
1e-10
1999.901
4051.263
41.64539
14023.24
8384.034
5462.41
10275.22
62458.3
12626.38
109968.5
12672.42
19747.88
52743.73
18713.44
157058.6
139374.7
5066.17
384912.3
525762
366754.8
105748
6640.967
3097335
285731.9
4219710
1750.38
108481
262145.5
1229.316
1e-10
388235.1
1.183649e+07
9865322
470.3757
1589.554
1e-10
5191.809
7618.594
1838.577
460.1591
598495
628780.8
1304783
1499945
567.6104
1493.354
501583
925858.7
137.9638
122.2996
1097729
6664095
5505903
1537743
8003800
738774.4
3745935
2458.206
0.1724184
0.05477145
3.209381
0.003548341
0.01069527
0.0003973325
1e-10
1e-10
2.399558e-06
1.919944e-05
3.279876e-10
1e-10
1e-10
1.369642e-10
5.499054e-10
1.789394e-09
1.222617e-09
2.54454e-10
1.015035e-09
6.587955e-09
0.00239717
0.001122994
0.001365297
0.0001300283
0.0006573711
4.458083e-05
0.0001961935
5259442
8049949
30.94203
3.065081
1e-10
0.05070524
4.254095e-05
2.193768e+07
9.26516e-10
5.508151e-10
1.4733e-08
2.768749e-09
1.886338e-08
1.434692e-09
1.724596e-09
1.647346e-09
5.502504e-08
1.160358e-07
1.558507e-07
3.159061e-07
3.322278e-07
7.451908e-07
7.375555e-07
2.563401e-06
3.644207e-06
8.323193e-06
1.079354e-05
4.001996e-07
5.669881e-07
2.518586e-05
7.036288e-07
2.760353e-05
0.0001056838
8.055649e-06
1.463046e-05
2.122107e-10
9.929756e-05
0.0004539209
0.0003039916
1.526321e-09
2.14761e-06
6.581969e-07
8.207799e-06
2.66015e+07
1e-10
1e-10
1e-10
1e-10
1e-10
1e-10
1e-10
1e-10
1e-10
1e-10
1e-10
1e-10
1e-10
1e-10
1e-10
1e-10
1e-10
1e-10
1e-10
1e-10
1e-10
1.657598e-10
1e-10
5.089797e-10
1e-10
1e-10
1e-10
2.050812e+07
1e-10
2.357067e-08
8.252994e-09
1e-10
9.348064e-09
88.01303
0.02632914
1e-10
1e-10
1022.27
45.0967
188.2386
65.04092
93.60322
658.195
1.484505e-05
4.34586e-06
2.15462e-07
2.02385e-07
1e-10
6.519205e-06
1e-10
2.705423e-06
1e-10
8.626303e-07
1.816641e-06
8.149322e-07
9.769496e-07
1.438735e-07
2.602764e-07
0.0002866771
3.508931e-05
1.791951e-06
2.347937e-08
11.45856
0.002786253
71233.17
130287.7
69059.31
14.31006
130.6158
2.003476e+07
6978747
1.550976e-06
147886.4
1e-10
1e-10
1e-10
1e-10
1e-10
1e-10
1e-10
1e-10
1e-10
1e-10
1e-10
1e-10
1e-10
1e-10
1e-10
1e-10
1e-10
1e-10
1e-10
1e-10
1e-10
1e-10
1e-10
1e-10
1e-10
1e-10
1e-10
1e-10
1e-10
1e-10
1e-10
1e-10
1e-10
1e-10
1e-10
1e-10
1e-10
1e-10
1e-10
1e-10
1e-10
1e-10
1e-10
1e-10
1e-10
1e-10
1e-10
1e-10
1e-10
1e-10
1e-10
1e-10
1e-10
1e-10
1e-10
1e-10
1e-10
1e-10
1e-10
1e-10
1e-10
1e-10
1e-10
1e-10
1e-10
1e-10
1e-10
1e-10
1e-10
1e-10
1e-10
1e-10
1e-10
1e-10
1e-10
1e-10
1e-10
1e-10
1e-10
1e-10
1e-10
1e-10
1e-10
1e-10
1e-10
1e-10
1e-10
1e-10
1e-10
1e-10
1e-10
1e-10
1e-10
1e-10
1e-10
1e-10
1e-10
1e-10
1e-10
1e-10
1e-10
1e-10
1e-10
1e-10
1e-10
1e-10
1e-10
1e-10
1e-10
1e-10
1e-10
1e-10
1e-10
1e-10
1e-10
1e-10
1e-10
1e-10
1e-10
1e-10
1e-10
1e-10
1e-10
1e-10
1e-10
1e-10
1e-10
1e-10
1e-10
1e-10
1e-10
1e-10
1e-10
1e-10
1e-10
1e-10
1e-10
1e-10
1e-10
1e-10
1e-10
1e-10
1e-10
1e-10
1e-10
1e-10
1e-10
1e-10
1e-10
1e-10
1e-10
1e-10
1e-10
1e-10
1e-10
1e-10
1e-10
1e-10
1e-10
1e-10
1e-10
1e-10
1e-10
1e-10
1.989084e+07
0.4774476
0.002161152
0.001410582
0.0002390228
0.00260713
1e-10
1e-10
1e-10
1e-10
1e-10
1e-10
1e-10
1e-10
1e-10
1e-10
1e-10
1.298679e-10
1e-10
1e-10
1e-10
1e-10
1e-10
1e-10
1e-10
7.854199e-09
1.056662e-08
2.653883e-09
1e-10
6.532748e-05
0.001573162
19.13198
173.3607
23.50851
286.8058
655.0265
1e-10
3.823162e-09
1.747857e-08
2.057427e-06
1e-10
1e-10
1e-10
0.000324086
4486923
1.23602e-06
5.483953e-07
6.384816e-08
3.473745e-07
1e-10
0.2953152
0.3122874
1.642287
2.328955
1.628296
1.998411
1.958413e-05
0.01608366
0.05072109
0.02296427
61124.78
135785
131027.8
504656.9
445911.8
1004862
1992282
3638716
4012219
1.408869e+07
1.466952e+07
6843404
3.712176e+07
1.081291e+07
1946585
6434722
1.191907e+07
6138048
1.290006e+07
1.946906e+07
3066702
1.305818e+07
1375.458
1635.9
602.0046
8182.547
7.087419
13.72198
1e-10
1e-10
1e-10
0.1773449
0.02343334
0.001719782
1e-10
1.390345e-07
1e-10
14.37414
0.07604788
2133.931
1e-10
6230649
1e-10
2.3366e-07
1e-10
1e-10
1e-10
1e-10
1e-10
1e-10
1e-10
1e-10
1e-10
1e-10
1e-10
1.570399e-09
1036.739
1e-10
1e-10
1e-10
1e-10
1e-10
1e-10
1e-10
1.557054e-07
1.221563e-09
3.988359e-08
9.925547e-09
1e-10
1e-10
1e-10
1e-10
33.0647
49.47346
105.2592
261.0941
277.2183
152.55
1756.142
88.47094
587.7315
193.2445
33.64971
1e-10
1.042621e-09
1e-10
1e-10
5170.456
19434.67
23177.19
74885.09
46288.01
100231.7
310410.5
192088.6
484177.7
1138835
40079.67
1912927
5179410
1581637
2048016
1.391459e+07
1e-10
5883262
86918.57
2298.214
40902.36
46407.83
139154.1
740377.2
222035.1
1422990
153359.8
2597589
260448.1
871062
3253883
1321782
7193614
380930
532742.6
1074686
5576353
766161.2
696291.4
1997886
444447.2
8593450
2987363
1.046607e+07
4703855
1.109909e+07
4961530
1.247759e+07
1954037
1e-10
24956.11
1e-10
46982.37
1048.599
0.0002372945
0.0004367745
0.1102927
161.2059
135.3753
505.2157
4.556023e-05
0.01448409
1e-10
1e-10
1.567481e-08
1e-10
56903.94
215708.5
334765.4
699307.1
967936.8
610870.3
5135638
30928.16
3594250
793325
1e-10
0.0008555379
1e-10
731608.1
6278782
1821527
7518860
1556594
1015699
0.617433
40.27974
1.223862e-08
1e-10
1.238423e-08
1e-10
1e-10
1e-10
1e-10
1.197606e-07
61.6795
1.206095e-10
4.008416e-10
9.97154e-10
1e-10
1e-10
1e-10
0.3828166
0.1021283
1e-10
4.958982e-06
5.321733e-05
1e-10
0.582494
0.08225644
2.290688e+07
1846.625
1.067562e+08
1.073294e-10
3.456636e-09
75297.44
1e-10
35363.54
1e-10
1.272117e-07
65.65389
4.809566e-05
2.832109e-06
98523.69
1e-10
1e-10
1e-10
2.776411e-06
9.952729e-07
1e-10
1e-10
0.001654548
1e-10
1e-10
1e-10
1e-10
0.001177843
161865
1.988234e-07
3.824505e+07
1e-10
1e-10
1e-10
1e-10
1e-10
1e-10
1e-10
866020.6
6052338
8627777
1e-10
1709899
1e-10
1.557447e-06
55.08962
1e-10
70.42471
7060572
3.361734e+07
1.341316e+08
46.7729
4.226907e+07
1.77191e+07
1e-10
1e-10
1e-10
20.05018
1.615854e+07
1e-10
2.742054e-06
0.001189793
1.532703e-09
0.002717868
2.988137e+07
1.703719e+07
5.801852e-08
155336
8.088813e+07
1e-10
1e-10
1.671038e-05
1e-10
4263169
0.0003982076
1.076961e-07
2.730099e+07
1e-10
6.077394e-09
1e-10
1e-10
3.333852e-09
1e-10
644.5375
0.3726186
4.255525
1e-10
2.132817e-08
26.67813
1e-10
1.294332e+08
446303.2
324153.9
4057.833
1e-10
2.737257e-06
2.152183e+07
8.019304e-08
2.865183e+07
7124838
225509
1e-10
1.134336e-08
1176020
17891.19
1.024595e-05
3.780918e-08
1e-10
1e-10
1e-10
4.080856e-07
3.305383e-08
221489.4
1e-10
6.204213e-06
1e-10
1e-10
1e-10
1e-10
4.127323e-05
392839.4